
  ___ ___ ___ _ _ _  
 |   |   |_  | | | | 
 | | | | | . | | | | 
 |__ |  _|___|_____|  25.7.0
 |___|_|             

User:   feddex@Feddexpc
Date:   Tue Jan 13 16:18:32 2026
Arch:   x86_64
Pid:    83968
CWD:    /mnt/c/Users/feder/PycharmProjects/DFT_QMB/exam_nanoribbons
Python: 3.13.9
gpaw:   /home/feddex/gpaw-env/lib/python3.13/site-packages/gpaw
_gpaw:  /home/feddex/gpaw-env/lib/python3.13/site-packages/
        _gpaw.cpython-313-x86_64-linux-gnu.so
ase:    /home/feddex/gpaw-env/lib/python3.13/site-packages/ase (version 3.26.0)
numpy:  /home/feddex/gpaw-env/lib/python3.13/site-packages/numpy (version 2.3.5)
scipy:  /home/feddex/gpaw-env/lib/python3.13/site-packages/scipy (version 1.16.3)
libxc:  5.2.3
units:  Angstrom and eV
cores: 1
OpenMP: False
OMP_NUM_THREADS: 1

Input parameters:
  kpts: [ 1  1 10]
  mode: {ecut: 300.0,
         name: pw}
  occupations: {fixmagmom: False,
                name: fermi-dirac,
                width: 0.05}
  spinpol: True
  symmetry: off
  xc: PBE

System changes: positions, numbers, cell, pbc, initial_charges, initial_magmoms 

Initialize ...

species:
  C:
    name: Carbon
    id: 4aa54d4b901d75f77cc0ea3eec22967b
    Z: 6.0
    valence: 4
    core: 2
    charge: 0.0
    file: /home/feddex/gpaw-env/lib/python3.13/site-packages/gpaw_data/setups/C.PBE.gz
    compensation charges: {type: gauss,
                           rc: 0.20,
                           lmax: 2}
    cutoffs: {filter: 1.14,
              core: 1.14}
    projectors:
      #              energy  rcut
      - 2s(2.00)   -13.751   0.635
      - 2p(2.00)    -5.284   0.635
      -  s          13.461   0.635
      -  p          21.927   0.635
      -  d           0.000   0.635
  
    # Using partial waves for C as LCAO basis

  H:
    name: Hydrogen
    id: d65de229564ff8ea4db303e23b6d1ecf
    Z: 1.0
    valence: 1
    core: 0
    charge: 0.0
    file: /home/feddex/gpaw-env/lib/python3.13/site-packages/gpaw_data/setups/H.PBE.gz
    compensation charges: {type: gauss,
                           rc: 0.15,
                           lmax: 2}
    cutoffs: {filter: 0.85,
              core: 0.53}
    projectors:
      #              energy  rcut
      - 1s(1.00)    -6.494   0.476
      -  s          20.717   0.476
      -  p           0.000   0.476
  
    # Using partial waves for H as LCAO basis

Reference energy: -4135.492786  # eV

Spin-polarized calculation.
Initial magnetic moment: 0.000000

Convergence criteria:
 Maximum [total energy] change in last 3 cyles: 0.0005 eV / valence electron
 Maximum integral of absolute [dens]ity change: 0.0001 electrons / valence electron
 Maximum integral of absolute [eigenst]ate change: 4e-08 eV^2 / valence electron
 Maximum number of scf [iter]ations: 333
 (Square brackets indicate name in SCF output, whereas a 'c' in
 the SCF output indicates the quantity has converged.)

Symmetries present (total): 1

  ( 1  0  0)
  ( 0  1  0)
  ( 0  0  1)

10 k-points: 1 x 1 x 10 Monkhorst-Pack grid
10 k-points in the irreducible part of the Brillouin zone
       k-points in crystal coordinates                weights
   0:     0.00000000    0.00000000   -0.45000000          1/10
   1:     0.00000000    0.00000000   -0.35000000          1/10
   2:     0.00000000    0.00000000   -0.25000000          1/10
   3:     0.00000000    0.00000000   -0.15000000          1/10
   4:     0.00000000    0.00000000   -0.05000000          1/10
   5:     0.00000000    0.00000000    0.05000000          1/10
   6:     0.00000000    0.00000000    0.15000000          1/10
   7:     0.00000000    0.00000000    0.25000000          1/10
   8:     0.00000000    0.00000000    0.35000000          1/10
   9:     0.00000000    0.00000000    0.45000000          1/10

Wave functions: Plane wave expansion
  Cutoff energy: 300.000 eV
  Number of coefficients (min, max): 14293, 14669
  Pulay-stress correction: 0.000000 eV/Ang^3 (de/decut=0.000000)
  Using Numpy's FFT
  ScaLapack parameters: grid=1x1, blocksize=None
  Wavefunction extrapolation:
    Improved wavefunction reuse through dual PAW basis 

Occupation numbers: Fermi-Dirac:
  width: 0.0500  # eV
 

Eigensolver
   Davidson(niter=2) 

Densities:
  Coarse grid: 100*80*10 grid
  Fine grid: 200*160*20 grid
  Total Charge: 0.000000 

Density mixing:
  Method: difference
  Backend: pulay
  Linear mixing parameter: 0.05
  old densities: 5
  Damping of long wavelength oscillations: 50 

Hamiltonian:
  XC and Coulomb potentials evaluated on a 200*160*20 grid
  Using the PBE Exchange-Correlation functional
  External potential:
    NoExternalPotential
 

XC parameters: PBE with 2 nearest neighbor stencil

Memory estimate:
  Process memory now: 167.86 MiB
  Calculator: 161.58 MiB
    Density: 49.18 MiB
      Arrays: 21.36 MiB
      Localized functions: 19.27 MiB
      Mixer: 8.54 MiB
    Hamiltonian: 16.34 MiB
      Arrays: 15.87 MiB
      XC: 0.00 MiB
      Poisson: 0.00 MiB
      vbar: 0.47 MiB
    Wavefunctions: 96.07 MiB
      Arrays psit_nG: 67.15 MiB
      Eigensolver: 4.51 MiB
      Projections: 0.28 MiB
      Projectors: 18.84 MiB
      PW-descriptor: 5.29 MiB

Total number of cores used: 1

Number of atoms: 6
Number of atomic orbitals: 18
Number of bands in calculation: 15
Number of valence electrons: 18
Bands to converge: occupied

... initialized

Initializing position-dependent things.

Density initialized from atomic densities
Creating initial wave functions:
  15 bands from LCAO basis set

             .------------------------------------------------------------.  
            /|                                                            |  
           / |                                                            |  
          /  .------------------------------------------------------------.  
         /  /                                                            /   
        /  /                                                            /    
       /  /                                                            /     
      /  /                          C  C                              /      
     /  /                                                            /       
    /  /                       H  C      C  H                       /        
   /  /                                                            /         
  /  /                                                            /          
 *  /                                                            /           
 | /                                                            /            
 |/                                                            /             
 *------------------------------------------------------------*              

Atomic positions and initial magnetic moments

Positions:
   0 C     11.090000   10.000000    0.000000    ( 0.0000,  0.0000,  0.5000)
   1 C     11.800000   10.000000    1.229756    ( 0.0000,  0.0000,  0.0000)
   2 C     13.220000   10.000000    1.229756    ( 0.0000,  0.0000,  0.0000)
   3 C     13.930000   10.000000    0.000000    ( 0.0000,  0.0000, -0.5000)
   4 H     10.000000   10.000000    0.000000    ( 0.0000,  0.0000,  0.0000)
   5 H     15.020000   10.000000    0.000000    ( 0.0000,  0.0000,  0.0000)

Unit cell:
           periodic     x           y           z      points  spacing
  1. axis:    no    25.020000    0.000000    0.000000   100     0.2502
  2. axis:    no     0.000000   20.000000    0.000000    80     0.2500
  3. axis:    yes    0.000000    0.000000    2.459512    10     0.2460

  Lengths:  25.020000  20.000000   2.459512
  Angles:   90.000000  90.000000  90.000000

Effective grid spacing dv^(1/3) = 0.2487

     iter     time        total  log10-change:  magmom
                         energy   eigst   dens
iter:   1 16:18:42   -43.312401                   +0.0000
iter:   2 16:18:51   -43.090355   -0.85  -0.74    +0.0000
iter:   3 16:19:00   -41.170469   -0.47  -0.75    +0.0000
iter:   4 16:19:07   -40.786275   -1.62  -1.21    -0.0000
iter:   5 16:19:16   -40.729697   -2.22  -1.26    -0.0000
iter:   6 16:19:25   -40.717939   -2.08  -1.41    -0.0000
iter:   7 16:19:33   -40.704173   -2.39  -1.80    -0.0000
iter:   8 16:19:41   -40.697646   -3.14  -2.09    -0.0000
iter:   9 16:19:51   -40.697661c  -3.68  -2.32    -0.0000
iter:  10 16:19:59   -40.696719c  -3.80  -2.36    -0.0000
iter:  11 16:20:07   -40.696678c  -5.11  -3.10    -0.0000
iter:  12 16:20:19   -40.696684c  -5.95  -3.23    -0.0000
iter:  13 16:20:30   -40.696678c  -5.96  -3.20    -0.0000
iter:  14 16:20:37   -40.696677c  -6.37  -3.23    -0.0000
iter:  15 16:20:46   -40.696731c  -5.41  -3.24    -0.0000
iter:  16 16:20:54   -40.696671c  -5.29  -3.08    -0.0000
iter:  17 16:21:03   -40.696685c  -5.10  -3.28    +0.0000
iter:  18 16:21:11   -40.696663c  -5.79  -3.39    +0.0000
iter:  19 16:21:20   -40.696663c  -6.46  -3.90    +0.0000
iter:  20 16:21:30   -40.696663c  -6.51  -3.97    -0.0000
iter:  21 16:21:38   -40.696662c  -7.12  -4.03c   +0.0000
iter:  22 16:21:48   -40.696662c  -7.75c -4.28c   +0.0000

Converged after 22 iterations.

Dipole moment: (-0.000000, -0.000000, -0.000000) |e|*Ang

Total magnetic moment: (0.000000, 0.000000, 0.000000)
Local magnetic moments:
   0 C  ( 0.000000,  0.000000,  0.089701)
   1 C  ( 0.000000,  0.000000, -0.033263)
   2 C  ( 0.000000,  0.000000,  0.033263)
   3 C  ( 0.000000,  0.000000, -0.089701)
   4 H  ( 0.000000,  0.000000, -0.002295)
   5 H  ( 0.000000,  0.000000,  0.002295)

Energy contributions relative to reference atoms: (reference = -4135.492786)

Kinetic:        +29.260150
Potential:      -30.858229
External:        +0.000000
XC:             -39.280980
Entropy (-ST):   -0.000395
Local:           +0.182594
SIC:             +0.000000
--------------------------
Free energy:    -40.696860
Extrapolated:   -40.696662

Spin contamination: 0.313541 electrons
Showing only first 2 kpts
                      Up                     Down
 Kpt  Band  Eigenvalues  Occupancy  Eigenvalues  Occupancy
  0     7     -6.22269    1.00000     -6.22269    1.00000
  0     8     -3.85125    0.99871     -3.85125    0.99871
  0     9     -3.18607    0.00129     -3.18607    0.00129
  0    10     -0.58656    0.00000     -0.58656    0.00000

  1     7     -7.54775    1.00000     -7.54775    1.00000
  1     8     -4.94491    1.00000     -4.94491    1.00000
  1     9     -1.96361    0.00000     -1.96361    0.00000
  1    10      1.23089    0.00000      1.23089    0.00000


Fermi level: -3.51866

Gap: 0.665 eV
Transition (v -> c):
  (s=1, k=9, n=8, [0.00, 0.00, 0.45]) -> (s=1, k=9, n=9, [0.00, 0.00, 0.45])
No difference between direct/indirect transitions
Writing to postproc_outputs_spindft/single/Ny2/dft/zgnr_Ny2_M1_scf.gpw (mode='all')

Timing:                              incl.     excl.
-----------------------------------------------------------
Hamiltonian:                         0.479     0.003   0.0% |
 Atomic:                             0.088     0.000   0.0% |
  XC Correction:                     0.087     0.087   0.0% |
 Calculate atomic Hamiltonians:      0.021     0.021   0.0% |
 Communicate:                        0.000     0.000   0.0% |
 Initialize Hamiltonian:             0.000     0.000   0.0% |
 Poisson:                            0.003     0.003   0.0% |
 XC 3D grid:                         0.364     0.364   0.1% |
LCAO initialization:                 1.004     0.009   0.0% |
 LCAO eigensolver:                   0.065     0.001   0.0% |
  Calculate projections:             0.001     0.001   0.0% |
  DenseAtomicCorrection:             0.002     0.002   0.0% |
  Distribute overlap matrix:         0.000     0.000   0.0% |
  Orbital Layouts:                   0.011     0.011   0.0% |
  Potential matrix:                  0.044     0.044   0.0% |
  Sum over cells:                    0.006     0.006   0.0% |
 LCAO to grid:                       0.888     0.888   0.2% |
 Set positions (LCAO WFS):           0.043     0.010   0.0% |
  Basic WFS set positions:           0.000     0.000   0.0% |
  Basis functions set positions:     0.000     0.000   0.0% |
  P tci:                             0.021     0.021   0.0% |
  ST tci:                            0.008     0.008   0.0% |
  mktci:                             0.005     0.005   0.0% |
PWDescriptor:                        0.025     0.025   0.0% |
SCF-cycle:                         194.243     0.188   0.1% |
 Davidson:                         170.644    63.633  17.2% |------|
  Apply H:                          25.076    24.679   6.7% |--|
   HMM T:                            0.396     0.396   0.1% |
  Subspace diag:                    24.671     0.065   0.0% |
   calc_h_matrix:                   23.019     0.942   0.3% |
    Apply H:                        22.078    21.675   5.9% |-|
     HMM T:                          0.402     0.402   0.1% |
   diagonalize:                      0.114     0.114   0.0% |
   rotate_psi:                       1.473     1.473   0.4% |
  calc. matrices:                   50.399     4.908   1.3% ||
   Apply H:                         45.491    44.733  12.1% |----|
    HMM T:                           0.758     0.758   0.2% |
  diagonalize:                       4.099     4.099   1.1% |
  rotate_psi:                        2.767     2.767   0.7% |
 Density:                           13.619     0.000   0.0% |
  Atomic density matrices:           0.024     0.024   0.0% |
  Mix:                               5.177     5.177   1.4% ||
  Multipole moments:                 0.002     0.002   0.0% |
  Pseudo density:                    8.416     8.415   2.3% ||
   Symmetrize density:               0.000     0.000   0.0% |
 Hamiltonian:                        9.563     0.053   0.0% |
  Atomic:                            1.973     0.010   0.0% |
   XC Correction:                    1.963     1.963   0.5% |
  Calculate atomic Hamiltonians:     0.475     0.475   0.1% |
  Communicate:                       0.000     0.000   0.0% |
  Poisson:                           0.050     0.050   0.0% |
  XC 3D grid:                        7.012     7.012   1.9% ||
 Orthonormalize:                     0.229     0.002   0.0% |
  calc_s_matrix:                     0.035     0.035   0.0% |
  inverse-cholesky:                  0.004     0.004   0.0% |
  projections:                       0.155     0.155   0.0% |
  rotate_psi_s:                      0.033     0.033   0.0% |
Set symmetry:                        0.000     0.000   0.0% |
Other:                             173.411   173.411  47.0% |------------------|
-----------------------------------------------------------
Total:                                       369.162 100.0%

Memory usage: 689.54 MiB
Date: Tue Jan 13 16:24:41 2026
